ITEM: TIMESTEP
155
ITEM: NUMBER OF ATOMS
3589
ITEM: BOX BOUNDS mm mm mm
-2.5000000000000000e+01 2.5000000000000000e+01
-2.5000000000000000e+01 2.5000000000000000e+01
-2.5000000000000000e+01 2.5000000000000000e+01
ITEM: ATOMS id x y z 
1361 -4.07474 -6.09631 -22.1139 
1362 -2.09227 -8.09419 -22.0407 
1799 -9.7585e-16 -6.14383 -22.1943 
1800 2.09227 -8.09419 -22.0407 
2237 4.07474 -6.09631 -22.1139 
986 -8.09419 -2.09227 -22.0407 
987 -6.09631 -4.07474 -22.1139 
1407 -4.10465 -2.06248 -22.2434 
1408 -2.06248 -4.10465 -22.2434 
1845 -2.25378e-16 -2.13589 -22.3108 
1846 2.06248 -4.10465 -22.2434 
2281 4.10465 -2.06248 -22.2434 
2282 6.09631 -4.07474 -22.1139 
2691 8.09419 -2.09227 -22.0407 
1032 -8.09419 2.09227 -22.0407 
1033 -6.14383 -6.84437e-16 -22.1943 
1078 -6.09631 4.07474 -22.1139 
1453 -4.10465 2.06248 -22.2434 
1454 -2.13589 -1.57449e-15 -22.3108 
1500 -2.06248 4.10465 -22.2434 
1891 2.41503e-16 -2.03915e-15 -23.8597 
1892 -3.03782e-16 2.13589 -22.3108 
1893 2.13589 -1.19012e-15 -22.3108 
1940 2.06248 4.10465 -22.2434 
2327 4.10465 2.06248 -22.2434 
2328 6.14383 -9.63749e-16 -22.1943 
2374 6.09631 4.07474 -22.1139 
2735 8.09419 2.09227 -22.0407 
1499 -4.07474 6.09631 -22.1139 
1545 -2.09227 8.09419 -22.0407 
1939 -6.61906e-16 6.14383 -22.1943 
1985 2.09227 8.09419 -22.0407 
2373 4.07474 6.09631 -22.1139 
1283 -4.10722 -14.1719 -18.1613 
1721 -7.44372e-16 -14.1901 -18.1782 
2159 4.10722 -14.1719 -18.1613 
528 -12.1323 -10.1917 -18.0365 
529 -10.1917 -12.1323 -18.0365 
904 -8.17992 -10.2116 -18.2536 
905 -6.1368 -10.1642 -20.1097 
906 -6.15408 -12.2348 -18.2241 
1319 -4.14267 -12.1099 -20.0473 
1320 -4.05807 -10.1399 -18.1966 
1321 -2.05179 -10.2277 -20.2607 
1322 -2.03934 -12.2369 -18.2384 
1757 -1.11071e-15 -12.1362 -20.0782 
1758 -1.33821e-15 -10.1432 -18.2329 
1759 2.05179 -10.2277 -20.2607 
1760 2.03934 -12.2369 -18.2384 
2195 4.14267 -12.1099 -20.0473 
2196 4.05807 -10.1399 -18.1966 
2197 6.1368 -10.1642 -20.1097 
2198 6.15408 -12.2348 -18.2241 
2611 8.17992 -10.2116 -18.2536 
2612 10.1917 -12.1323 -18.0365 
2978 12.1323 -10.1917 -18.0365 
566 -12.2348 -6.15408 -18.2241 
567 -10.1642 -6.1368 -20.1097 
568 -10.2116 -8.17992 -18.2536 
944 -8.14816 -8.14816 -20.1135 
945 -8.11943 -6.0982 -18.2122 
946 -6.15297 -6.15297 -20.2905 
947 -6.0982 -8.11943 -18.2122 
1363 -4.13478 -8.19621 -20.2766 
1364 -4.0841 -6.10855 -18.2678 
1365 -2.02011 -6.07871 -20.2155 
1366 -2.04994 -8.13907 -18.2737 
1801 -7.12367e-16 -8.19931 -20.2702 
1802 -2.70717e-16 -6.1117 -18.2328 
1803 2.02011 -6.07871 -20.2155 
1804 2.04994 -8.13907 -18.2737 
2238 4.13478 -8.19621 -20.2766 
2239 4.0841 -6.10855 -18.2678 
2240 6.15297 -6.15297 -20.2905 
2241 6.0982 -8.11943 -18.2122 
2649 8.14816 -8.14816 -20.1135 
2650 8.11943 -6.0982 -18.2122 
2651 10.1642 -6.1368 -20.1097 
2652 10.2116 -8.17992 -18.2536 
3014 12.2348 -6.15408 -18.2241 
292 -14.1719 -4.10722 -18.1613 
606 -12.1099 -4.14267 -20.0473 
607 -12.2369 -2.03934 -18.2384 
608 -10.2277 -2.05179 -20.2607 
609 -10.1399 -4.05807 -18.1966 
988 -8.19621 -4.13478 -20.2766 
989 -8.13907 -2.04994 -18.2737 
990 -6.07871 -2.02011 -20.2155 
991 -6.10855 -4.0841 -18.2678 
1409 -4.0513 -4.0513 -20.23 
1410 -4.04151 -2.01571 -18.2291 
1411 -2.0292 -2.0292 -20.3145 
1412 -2.01571 -4.04151 -18.2291 
1847 -5.58881e-17 -4.06534 -20.2781 
1848 6.59298e-16 -2.00799 -18.2788 
1849 2.0292 -2.0292 -20.3145 
1850 2.01571 -4.04151 -18.2291 
2283 4.0513 -4.0513 -20.23 
2284 4.04151 -2.01571 -18.2291 
2285 6.07871 -2.02011 -20.2155 
2286 6.10855 -4.0841 -18.2678 
2692 8.19621 -4.13478 -20.2766 
2693 8.13907 -2.04994 -18.2737 
2694 10.2277 -2.05179 -20.2607 
2695 10.1399 -4.05807 -18.1966 
3050 12.1099 -4.14267 -20.0473 
3051 12.2369 -2.03934 -18.2384 
3052 14.1719 -4.10722 -18.1613 
328 -14.1901 1.89432e-16 -18.1782 
364 -14.1719 4.10722 -18.1613 
648 -12.1362 3.88754e-16 -20.0782 
649 -12.2369 2.03934 -18.2384 
650 -10.2277 2.05179 -20.2607 
651 -10.1432 -4.30165e-16 -18.2329 
690 -12.1099 4.14267 -20.0473 
693 -10.1399 4.05807 -18.1966 
1034 -8.19931 -6.41267e-16 -20.2702 
1035 -8.13907 2.04994 -18.2737 
1036 -6.07871 2.02011 -20.2155 
1037 -6.1117 -9.22537e-16 -18.2328 
1079 -8.19621 4.13478 -20.2766 
1082 -6.10855 4.0841 -18.2678 
1455 -4.06534 -5.81706e-16 -20.2781 
1456 -4.04151 2.01571 -18.2291 
1457 -2.0292 2.0292 -20.3145 
1458 -2.00799 1.19794e-16 -18.2788 
1501 -4.0513 4.0513 -20.23 
1504 -2.01571 4.04151 -18.2291 
1894 8.05098e-16 -3.41655e-17 -20.3993 
1895 7.99202e-16 2.00799 -18.2788 
1896 2.0292 2.0292 -20.3145 
1897 2.00799 2.75609e-16 -18.2788 
1941 2.8272e-16 4.06534 -20.2781 
1944 2.01571 4.04151 -18.2291 
2329 4.06534 1.96441e-16 -20.2781 
2330 4.04151 2.01571 -18.2291 
2375 4.0513 4.0513 -20.23 
2331 6.07871 2.02011 -20.2155 
2332 6.1117 1.89521e-16 -18.2328 
2378 6.10855 4.0841 -18.2678 
2736 8.19931 -5.86086e-17 -20.2702 
2737 8.13907 2.04994 -18.2737 
2779 8.19621 4.13478 -20.2766 
2738 10.2277 2.05179 -20.2607 
2739 10.1432 -6.04374e-16 -18.2329 
2782 10.1399 4.05807 -18.1966 
3090 12.1362 1.82593e-16 -20.0782 
3091 12.2369 2.03934 -18.2384 
3130 12.1099 4.14267 -20.0473 
3092 14.1901 1.69163e-16 -18.1782 
3132 14.1719 4.10722 -18.1613 
691 -12.2348 6.15408 -18.2241 
692 -10.1642 6.1368 -20.1097 
733 -10.2116 8.17992 -18.2536 
1080 -8.11943 6.0982 -18.2122 
1081 -6.15297 6.15297 -20.2905 
1122 -8.14816 8.14816 -20.1135 
1125 -6.0982 8.11943 -18.2122 
1502 -4.0841 6.10855 -18.2678 
1503 -2.02011 6.07871 -20.2155 
1546 -4.13478 8.19621 -20.2766 
1549 -2.04994 8.13907 -18.2737 
1942 -1.25811e-16 6.1117 -18.2328 
1943 2.02011 6.07871 -20.2155 
1986 -7.20411e-16 8.19931 -20.2702 
1989 2.04994 8.13907 -18.2737 
2376 4.0841 6.10855 -18.2678 
2419 4.13478 8.19621 -20.2766 
2377 6.15297 6.15297 -20.2905 
2422 6.0982 8.11943 -18.2122 
2780 8.11943 6.0982 -18.2122 
2821 8.14816 8.14816 -20.1135 
2781 10.1642 6.1368 -20.1097 
2823 10.2116 8.17992 -18.2536 
3131 12.2348 6.15408 -18.2241 
732 -12.1323 10.1917 -18.0365 
770 -10.1917 12.1323 -18.0365 
1123 -8.17992 10.2116 -18.2536 
1124 -6.1368 10.1642 -20.1097 
1164 -6.15408 12.2348 -18.2241 
1547 -4.05807 10.1399 -18.1966 
1548 -2.05179 10.2277 -20.2607 
1589 -4.14267 12.1099 -20.0473 
1591 -2.03934 12.2369 -18.2384 
1987 -1.18236e-16 10.1432 -18.2329 
1988 2.05179 10.2277 -20.2607 
2029 -1.51793e-16 12.1362 -20.0782 
2031 2.03934 12.2369 -18.2384 
2420 4.05807 10.1399 -18.1966 
2461 4.14267 12.1099 -20.0473 
2421 6.1368 10.1642 -20.1097 
2463 6.15408 12.2348 -18.2241 
2822 8.17992 10.2116 -18.2536 
2861 10.1917 12.1323 -18.0365 
3170 12.1323 10.1917 -18.0365 
1590 -4.10722 14.1719 -18.1613 
2030 -4.10906e-16 14.1901 -18.1782 
2462 4.10722 14.1719 -18.1613 
1255 -4.10722 -18.1613 -14.1719 
1693 9.32591e-16 -18.1782 -14.1901 
2131 4.10722 -18.1613 -14.1719 
496 -12.1896 -14.2008 -14.2008 
497 -10.1761 -14.1793 -16.1815 
498 -10.1761 -16.1815 -14.1793 
870 -8.20345 -16.0367 -16.0367 
871 -8.11045 -14.1537 -14.1537 
872 -6.11382 -14.2504 -16.257 
873 -6.11382 -16.257 -14.2504 
1284 -4.05731 -16.1795 -16.1795 
1285 -4.07967 -14.2087 -14.2087 
1286 -2.03485 -14.2518 -16.2558 
1287 -2.03485 -16.2558 -14.2518 
1722 1.136e-16 -16.186 -16.186 
1723 5.02791e-17 -14.2038 -14.2038 
1724 2.03485 -14.2518 -16.2558 
1725 2.03485 -16.2558 -14.2518 
2160 4.05731 -16.1795 -16.1795 
2161 4.07967 -14.2087 -14.2087 
2162 6.11382 -14.2504 -16.257 
2163 6.11382 -16.257 -14.2504 
2577 8.20345 -16.0367 -16.0367 
2578 8.11045 -14.1537 -14.1537 
2579 10.1761 -14.1793 -16.1815 
2580 10.1761 -16.1815 -14.1793 
2950 12.1896 -14.2008 -14.2008 
226 -16.1815 -10.1761 -14.1793 
227 -14.1793 -10.1761 -16.1815 
228 -14.2008 -12.1896 -14.2008 
530 -12.2195 -12.2195 -16.1742 
531 -12.1667 -10.1504 -14.182 
532 -10.126 -10.126 -16.1518 
533 -10.1504 -12.1667 -14.182 
907 -8.11385 -12.2206 -16.2228 
908 -8.09724 -10.1478 -14.1801 
909 -6.11713 -10.1578 -16.2327 
910 -6.07596 -12.1697 -14.1986 
1323 -4.07825 -12.1781 -16.2178 
1324 -4.05719 -10.1407 -14.2005 
1325 -2.02132 -10.1544 -16.2155 
1326 -2.03717 -12.1916 -14.2116 
1761 -6.17353e-16 -12.1843 -16.2178 
1762 9.82317e-16 -10.1527 -14.193 
1763 2.02132 -10.1544 -16.2155 
1764 2.03717 -12.1916 -14.2116 
2199 4.07825 -12.1781 -16.2178 
2200 4.05719 -10.1407 -14.2005 
2201 6.11713 -10.1578 -16.2327 
2202 6.07596 -12.1697 -14.1986 
2613 8.11385 -12.2206 -16.2228 
2614 8.09724 -10.1478 -14.1801 
2615 10.126 -10.126 -16.1518 
2616 10.1504 -12.1667 -14.182 
2979 12.2195 -12.2195 -16.1742 
2980 12.1667 -10.1504 -14.182 
2981 14.1793 -10.1761 -16.1815 
2982 14.2008 -12.1896 -14.2008 
3277 16.1815 -10.1761 -14.1793 
258 -16.0367 -8.20345 -16.0367 
259 -16.257 -6.11382 -14.2504 
260 -14.2504 -6.11382 -16.257 
261 -14.1537 -8.11045 -14.1537 
569 -12.2206 -8.11385 -16.2228 
570 -12.1697 -6.07596 -14.1986 
571 -10.1578 -6.11713 -16.2327 
572 -10.1478 -8.09724 -14.1801 
948 -8.12816 -8.12816 -16.2319 
949 -8.11584 -6.08785 -14.1981 
950 -6.07998 -6.07998 -16.2025 
951 -6.08785 -8.11584 -14.1981 
1367 -4.05227 -8.10907 -16.2024 
1368 -4.05051 -6.08015 -14.1892 
1369 -2.0376 -6.09267 -16.2368 
1370 -2.02004 -8.11383 -14.1952 
1805 2.59488e-16 -8.11695 -16.2252 
1806 4.00591e-16 -6.0826 -14.2066 
1807 2.0376 -6.09267 -16.2368 
1808 2.02004 -8.11383 -14.1952 
2242 4.05227 -8.10907 -16.2024 
2243 4.05051 -6.08015 -14.1892 
2244 6.07998 -6.07998 -16.2025 
2245 6.08785 -8.11584 -14.1981 
2653 8.12816 -8.12816 -16.2319 
2654 8.11584 -6.08785 -14.1981 
2655 10.1578 -6.11713 -16.2327 
2656 10.1478 -8.09724 -14.1801 
3015 12.2206 -8.11385 -16.2228 
3016 12.1697 -6.07596 -14.1986 
3017 14.2504 -6.11382 -16.257 
3018 14.1537 -8.11045 -14.1537 
3305 16.0367 -8.20345 -16.0367 
3306 16.257 -6.11382 -14.2504 
81 -18.1613 -4.10722 -14.1719 
293 -16.1795 -4.05731 -16.1795 
294 -16.2558 -2.03485 -14.2518 
295 -14.2518 -2.03485 -16.2558 
296 -14.2087 -4.07967 -14.2087 
610 -12.1781 -4.07825 -16.2178 
611 -12.1916 -2.03717 -14.2116 
612 -10.1544 -2.02132 -16.2155 
613 -10.1407 -4.05719 -14.2005 
992 -8.10907 -4.05227 -16.2024 
993 -8.11383 -2.02004 -14.1952 
994 -6.09267 -2.0376 -16.2368 
995 -6.08015 -4.05051 -14.1892 
1413 -4.06185 -4.06185 -16.2368 
1414 -4.05754 -2.03062 -14.2052 
1415 -2.01854 -2.01854 -16.2212 
1416 -2.03062 -4.05754 -14.2052 
1851 2.21183e-16 -4.05423 -16.224 
1852 -3.15615e-16 -2.02832 -14.1924 
1853 2.01854 -2.01854 -16.2212 
1854 2.03062 -4.05754 -14.2052 
2287 4.06185 -4.06185 -16.2368 
2288 4.05754 -2.03062 -14.2052 
2289 6.09267 -2.0376 -16.2368 
2290 6.08015 -4.05051 -14.1892 
2696 8.10907 -4.05227 -16.2024 
2697 8.11383 -2.02004 -14.1952 
2698 10.1544 -2.02132 -16.2155 
2699 10.1407 -4.05719 -14.2005 
3053 12.1781 -4.07825 -16.2178 
3054 12.1916 -2.03717 -14.2116 
3055 14.2518 -2.03485 -16.2558 
3056 14.2087 -4.07967 -14.2087 
3335 16.1795 -4.05731 -16.1795 
3336 16.2558 -2.03485 -14.2518 
3337 18.1613 -4.10722 -14.1719 
109 -18.1782 3.27896e-16 -14.1901 
137 -18.1613 4.10722 -14.1719 
329 -16.186 1.70762e-16 -16.186 
330 -16.2558 2.03485 -14.2518 
331 -14.2518 2.03485 -16.2558 
332 -14.2038 5.00279e-16 -14.2038 
365 -16.1795 4.05731 -16.1795 
368 -14.2087 4.07967 -14.2087 
652 -12.1843 -2.07972e-16 -16.2178 
653 -12.1916 2.03717 -14.2116 
654 -10.1544 2.02132 -16.2155 
655 -10.1527 6.31503e-17 -14.193 
694 -12.1781 4.07825 -16.2178 
697 -10.1407 4.05719 -14.2005 
1038 -8.11695 6.35736e-18 -16.2252 
1039 -8.11383 2.02004 -14.1952 
1040 -6.09267 2.0376 -16.2368 
1041 -6.0826 1.14284e-16 -14.2066 
1083 -8.10907 4.05227 -16.2024 
1086 -6.08015 4.05051 -14.1892 
1459 -4.05423 -9.81419e-16 -16.224 
1460 -4.05754 2.03062 -14.2052 
1461 -2.01854 2.01854 -16.2212 
1462 -2.02832 4.56586e-17 -14.1924 
1505 -4.06185 4.06185 -16.2368 
1508 -2.03062 4.05754 -14.2052 
1898 1.80743e-16 1.5185e-16 -16.2273 
1899 -2.4177e-16 2.02832 -14.1924 
1900 2.01854 2.01854 -16.2212 
1901 2.02832 -3.05766e-16 -14.1924 
1945 5.06797e-16 4.05423 -16.224 
1948 2.03062 4.05754 -14.2052 
2333 4.05423 -2.01811e-16 -16.224 
2334 4.05754 2.03062 -14.2052 
2379 4.06185 4.06185 -16.2368 
2335 6.09267 2.0376 -16.2368 
2336 6.0826 -1.02005e-15 -14.2066 
2382 6.08015 4.05051 -14.1892 
2740 8.11695 -6.46435e-17 -16.2252 
2741 8.11383 2.02004 -14.1952 
2783 8.10907 4.05227 -16.2024 
2742 10.1544 2.02132 -16.2155 
2743 10.1527 -2.77842e-16 -14.193 
2786 10.1407 4.05719 -14.2005 
3093 12.1843 1.17853e-16 -16.2178 
3094 12.1916 2.03717 -14.2116 
3133 12.1781 4.07825 -16.2178 
3095 14.2518 2.03485 -16.2558 
3096 14.2038 -3.40751e-16 -14.2038 
3136 14.2087 4.07967 -14.2087 
3367 16.186 -2.69828e-16 -16.186 
3368 16.2558 2.03485 -14.2518 
3399 16.1795 4.05731 -16.1795 
3369 18.1782 -1.79054e-16 -14.1901 
3401 18.1613 4.10722 -14.1719 
366 -16.257 6.11382 -14.2504 
367 -14.2504 6.11382 -16.257 
400 -16.0367 8.20345 -16.0367 
403 -14.1537 8.11045 -14.1537 
695 -12.1697 6.07596 -14.1986 
696 -10.1578 6.11713 -16.2327 
734 -12.2206 8.11385 -16.2228 
737 -10.1478 8.09724 -14.1801 
1084 -8.11584 6.08785 -14.1981 
1085 -6.07998 6.07998 -16.2025 
1126 -8.12816 8.12816 -16.2319 
1129 -6.08785 8.11584 -14.1981 
1506 -4.05051 6.08015 -14.1892 
1507 -2.0376 6.09267 -16.2368 
1550 -4.05227 8.10907 -16.2024 
1553 -2.02004 8.11383 -14.1952 
1946 4.14382e-16 6.0826 -14.2066 
1947 2.0376 6.09267 -16.2368 
1990 1.35792e-15 8.11695 -16.2252 
1993 2.02004 8.11383 -14.1952 
2380 4.05051 6.08015 -14.1892 
2423 4.05227 8.10907 -16.2024 
2381 6.07998 6.07998 -16.2025 
2426 6.08785 8.11584 -14.1981 
2784 8.11584 6.08785 -14.1981 
2824 8.12816 8.12816 -16.2319 
2785 10.1578 6.11713 -16.2327 
2827 10.1478 8.09724 -14.1801 
3134 12.1697 6.07596 -14.1986 
3171 12.2206 8.11385 -16.2228 
3135 14.2504 6.11382 -16.257 
3174 14.1537 8.11045 -14.1537 
3400 16.257 6.11382 -14.2504 
3431 16.0367 8.20345 -16.0367 
401 -16.1815 10.1761 -14.1793 
402 -14.1793 10.1761 -16.1815 
434 -14.2008 12.1896 -14.2008 
735 -12.1667 10.1504 -14.182 
736 -10.126 10.126 -16.1518 
771 -12.2195 12.2195 -16.1742 
774 -10.1504 12.1667 -14.182 
1127 -8.09724 10.1478 -14.1801 
1128 -6.11713 10.1578 -16.2327 
1165 -8.11385 12.2206 -16.2228 
1168 -6.07596 12.1697 -14.1986 
1551 -4.05719 10.1407 -14.2005 
1552 -2.02132 10.1544 -16.2155 
1592 -4.07825 12.1781 -16.2178 
1595 -2.03717 12.1916 -14.2116 
1991 1.09686e-15 10.1527 -14.193 
1992 2.02132 10.1544 -16.2155 
2032 -3.09863e-16 12.1843 -16.2178 
2035 2.03717 12.1916 -14.2116 
2424 4.05719 10.1407 -14.2005 
2464 4.07825 12.1781 -16.2178 
2425 6.11713 10.1578 -16.2327 
2467 6.07596 12.1697 -14.1986 
2825 8.09724 10.1478 -14.1801 
2862 8.11385 12.2206 -16.2228 
2826 10.126 10.126 -16.1518 
2865 10.1504 12.1667 -14.182 
3172 12.1667 10.1504 -14.182 
3206 12.2195 12.2195 -16.1742 
3173 14.1793 10.1761 -16.1815 
3208 14.2008 12.1896 -14.2008 
3432 16.1815 10.1761 -14.1793 
772 -12.1896 14.2008 -14.2008 
773 -10.1761 14.1793 -16.1815 
806 -10.1761 16.1815 -14.1793 
1166 -8.11045 14.1537 -14.1537 
1167 -6.11382 14.2504 -16.257 
1200 -8.20345 16.0367 -16.0367 
1201 -6.11382 16.257 -14.2504 
1593 -4.07967 14.2087 -14.2087 
1594 -2.03485 14.2518 -16.2558 
1629 -4.05731 16.1795 -16.1795 
1631 -2.03485 16.2558 -14.2518 
2033 -3.28318e-16 14.2038 -14.2038 
2034 2.03485 14.2518 -16.2558 
2069 -1.18107e-15 16.186 -16.186 
2071 2.03485 16.2558 -14.2518 
2465 4.07967 14.2087 -14.2087 
2501 4.05731 16.1795 -16.1795 
2466 6.11382 14.2504 -16.257 
2503 6.11382 16.257 -14.2504 
2863 8.11045 14.1537 -14.1537 
2897 8.20345 16.0367 -16.0367 
2864 10.1761 14.1793 -16.1815 
2898 10.1761 16.1815 -14.1793 
3207 12.1896 14.2008 -14.2008 
1630 -4.10722 18.1613 -14.1719 
2070 -1.82277e-15 18.1782 -14.1901 
2502 4.10722 18.1613 -14.1719 
476 -12.1323 -18.0365 -10.1917 
477 -10.1917 -18.0365 -12.1323 
846 -8.17992 -18.2536 -10.2116 
847 -6.15408 -18.2241 -12.2348 
848 -6.1368 -20.1097 -10.1642 
1256 -4.14267 -20.0473 -12.1099 
1257 -4.05807 -18.1966 -10.1399 
1258 -2.03934 -18.2384 -12.2369 
1259 -2.05179 -20.2607 -10.2277 
1694 -9.81812e-17 -20.0782 -12.1362 
1695 1.51345e-16 -18.2329 -10.1432 
1696 2.03934 -18.2384 -12.2369 
1697 2.05179 -20.2607 -10.2277 
2132 4.14267 -20.0473 -12.1099 
2133 4.05807 -18.1966 -10.1399 
2134 6.15408 -18.2241 -12.2348 
2135 6.1368 -20.1097 -10.1642 
2555 8.17992 -18.2536 -10.2116 
2556 10.1917 -18.0365 -12.1323 
2938 12.1323 -18.0365 -10.1917 
202 -16.1815 -14.1793 -10.1761 
203 -14.2008 -14.2008 -12.1896 
204 -14.1793 -16.1815 -10.1761 
499 -12.2195 -16.1742 -12.2195 
500 -12.1667 -14.182 -10.1504 
501 -10.1504 -14.182 -12.1667 
502 -10.126 -16.1518 -10.126 
874 -8.11385 -16.2228 -12.2206 
875 -8.09724 -14.1801 -10.1478 
876 -6.07596 -14.1986 -12.1697 
877 -6.11713 -16.2327 -10.1578 
1288 -4.07825 -16.2178 -12.1781 
1289 -4.05719 -14.2005 -10.1407 
1290 -2.03717 -14.2116 -12.1916 
1291 -2.02132 -16.2155 -10.1544 
1726 2.78824e-17 -16.2178 -12.1843 
1727 5.64337e-16 -14.193 -10.1527 
1728 2.03717 -14.2116 -12.1916 
1729 2.02132 -16.2155 -10.1544 
2164 4.07825 -16.2178 -12.1781 
2165 4.05719 -14.2005 -10.1407 
2166 6.07596 -14.1986 -12.1697 
2167 6.11713 -16.2327 -10.1578 
2581 8.11385 -16.2228 -12.2206 
2582 8.09724 -14.1801 -10.1478 
2583 10.1504 -14.182 -12.1667 
2584 10.126 -16.1518 -10.126 
2951 12.2195 -16.1742 -12.2195 
2952 12.1667 -14.182 -10.1504 
2953 14.2008 -14.2008 -12.1896 
2954 14.1793 -16.1815 -10.1761 
3263 16.1815 -14.1793 -10.1761 
37 -18.0365 -10.1917 -12.1323 
38 -18.0365 -12.1323 -10.1917 
229 -16.1742 -12.2195 -12.2195 
230 -16.1518 -10.126 -10.126 
231 -14.182 -10.1504 -12.1667 
232 -14.182 -12.1667 -10.1504 
534 -12.1725 -12.1725 -12.1725 
535 -12.1567 -10.1326 -10.1326 
536 -10.1326 -10.1326 -12.1567 
537 -10.1326 -12.1567 -10.1326 
911 -8.10092 -12.1448 -12.1448 
912 -8.10126 -10.1275 -10.1275 
913 -6.07019 -10.1343 -12.1618 
914 -6.07019 -12.1618 -10.1343 
1327 -4.05088 -12.1713 -12.1713 
1328 -4.04688 -10.1386 -10.1386 
1329 -2.02746 -10.149 -12.1765 
1330 -2.02746 -12.1765 -10.149 
1765 5.29644e-16 -12.1794 -12.1794 
1766 2.80813e-16 -10.1474 -10.1474 
1767 2.02746 -10.149 -12.1765 
1768 2.02746 -12.1765 -10.149 
2203 4.05088 -12.1713 -12.1713 
2204 4.04688 -10.1386 -10.1386 
2205 6.07019 -10.1343 -12.1618 
2206 6.07019 -12.1618 -10.1343 
2617 8.10092 -12.1448 -12.1448 
2618 8.10126 -10.1275 -10.1275 
2619 10.1326 -10.1326 -12.1567 
2620 10.1326 -12.1567 -10.1326 
2983 12.1725 -12.1725 -12.1725 
2984 12.1567 -10.1326 -10.1326 
2985 14.182 -10.1504 -12.1667 
2986 14.182 -12.1667 -10.1504 
3278 16.1742 -12.2195 -12.2195 
3279 16.1518 -10.126 -10.126 
3280 18.0365 -10.1917 -12.1323 
3281 18.0365 -12.1323 -10.1917 
57 -20.1097 -6.1368 -10.1642 
58 -18.2241 -6.15408 -12.2348 
59 -18.2536 -8.17992 -10.2116 
262 -16.2228 -8.11385 -12.2206 
263 -16.2327 -6.11713 -10.1578 
264 -14.1986 -6.07596 -12.1697 
265 -14.1801 -8.09724 -10.1478 
573 -12.1448 -8.10092 -12.1448 
574 -12.1618 -6.07019 -10.1343 
575 -10.1343 -6.07019 -12.1618 
576 -10.1275 -8.10126 -10.1275 
952 -8.10767 -8.10767 -12.1637 
953 -8.10607 -6.07634 -10.1368 
954 -6.08319 -6.08319 -12.1699 
955 -6.07634 -8.10607 -10.1368 
1371 -4.05043 -8.11058 -12.171 
1372 -4.05231 -6.08228 -10.1419 
1373 -2.02227 -6.08205 -12.1694 
1374 -2.02483 -8.11426 -10.1435 
1809 3.19693e-16 -8.11477 -12.1694 
1810 7.63822e-16 -6.08385 -10.14 
1811 2.02227 -6.08205 -12.1694 
1812 2.02483 -8.11426 -10.1435 
2246 4.05043 -8.11058 -12.171 
2247 4.05231 -6.08228 -10.1419 
2248 6.08319 -6.08319 -12.1699 
2249 6.07634 -8.10607 -10.1368 
2657 8.10767 -8.10767 -12.1637 
2658 8.10607 -6.07634 -10.1368 
2659 10.1343 -6.07019 -12.1618 
2660 10.1275 -8.10126 -10.1275 
3019 12.1448 -8.10092 -12.1448 
3020 12.1618 -6.07019 -10.1343 
3021 14.1986 -6.07596 -12.1697 
3022 14.1801 -8.09724 -10.1478 
3307 16.2228 -8.11385 -12.2206 
3308 16.2327 -6.11713 -10.1578 
3309 18.2241 -6.15408 -12.2348 
3310 18.2536 -8.17992 -10.2116 
3495 20.1097 -6.1368 -10.1642 
82 -20.0473 -4.14267 -12.1099 
83 -20.2607 -2.05179 -10.2277 
84 -18.2384 -2.03934 -12.2369 
85 -18.1966 -4.05807 -10.1399 
297 -16.2178 -4.07825 -12.1781 
298 -16.2155 -2.02132 -10.1544 
299 -14.2116 -2.03717 -12.1916 
300 -14.2005 -4.05719 -10.1407 
614 -12.1713 -4.05088 -12.1713 
615 -12.1765 -2.02746 -10.149 
616 -10.149 -2.02746 -12.1765 
617 -10.1386 -4.04688 -10.1386 
996 -8.11058 -4.05043 -12.171 
997 -8.11426 -2.02483 -10.1435 
998 -6.08205 -2.02227 -12.1694 
999 -6.08228 -4.05231 -10.1419 
1417 -4.053 -4.053 -12.1665 
1418 -4.05478 -2.02565 -10.1402 
1419 -2.02982 -2.02982 -12.171 
1420 -2.02565 -4.05478 -10.1402 
1855 4.7084e-16 -4.05625 -12.1733 
1856 1.91756e-16 -2.02818 -10.1428 
1857 2.02982 -2.02982 -12.171 
1858 2.02565 -4.05478 -10.1402 
2291 4.053 -4.053 -12.1665 
2292 4.05478 -2.02565 -10.1402 
2293 6.08205 -2.02227 -12.1694 
2294 6.08228 -4.05231 -10.1419 
2700 8.11058 -4.05043 -12.171 
2701 8.11426 -2.02483 -10.1435 
2702 10.149 -2.02746 -12.1765 
2703 10.1386 -4.04688 -10.1386 
3057 12.1713 -4.05088 -12.1713 
3058 12.1765 -2.02746 -10.149 
3059 14.2116 -2.03717 -12.1916 
3060 14.2005 -4.05719 -10.1407 
3338 16.2178 -4.07825 -12.1781 
3339 16.2155 -2.02132 -10.1544 
3340 18.2384 -2.03934 -12.2369 
3341 18.1966 -4.05807 -10.1399 
3511 20.0473 -4.14267 -12.1099 
3512 20.2607 -2.05179 -10.2277 
110 -20.0782 3.38939e-16 -12.1362 
111 -20.2607 2.05179 -10.2277 
112 -18.2384 2.03934 -12.2369 
113 -18.2329 7.1517e-16 -10.1432 
138 -20.0473 4.14267 -12.1099 
141 -18.1966 4.05807 -10.1399 
333 -16.2178 9.45858e-16 -12.1843 
334 -16.2155 2.02132 -10.1544 
335 -14.2116 2.03717 -12.1916 
336 -14.193 -2.41919e-16 -10.1527 
369 -16.2178 4.07825 -12.1781 
372 -14.2005 4.05719 -10.1407 
656 -12.1794 2.43549e-16 -12.1794 
657 -12.1765 2.02746 -10.149 
658 -10.149 2.02746 -12.1765 
659 -10.1474 -2.6869e-16 -10.1474 
698 -12.1713 4.05088 -12.1713 
701 -10.1386 4.04688 -10.1386 
1042 -8.11477 -3.16811e-16 -12.1694 
1043 -8.11426 2.02483 -10.1435 
1044 -6.08205 2.02227 -12.1694 
1045 -6.08385 -1.85206e-16 -10.14 
1087 -8.11058 4.05043 -12.171 
1090 -6.08228 4.05231 -10.1419 
1463 -4.05625 2.23973e-16 -12.1733 
1464 -4.05478 2.02565 -10.1402 
1465 -2.02982 2.02982 -12.171 
1466 -2.02818 1.30959e-16 -10.1428 
1509 -4.053 4.053 -12.1665 
1512 -2.02565 4.05478 -10.1402 
1902 -1.41429e-16 -1.78951e-16 -12.167 
1903 2.31487e-16 2.02818 -10.1428 
1904 2.02982 2.02982 -12.171 
1905 2.02818 -5.0721e-16 -10.1428 
1949 1.07417e-17 4.05625 -12.1733 
1952 2.02565 4.05478 -10.1402 
2337 4.05625 -5.59523e-16 -12.1733 
2338 4.05478 2.02565 -10.1402 
2383 4.053 4.053 -12.1665 
2339 6.08205 2.02227 -12.1694 
2340 6.08385 -1.99593e-16 -10.14 
2386 6.08228 4.05231 -10.1419 
2744 8.11477 -6.77882e-16 -12.1694 
2745 8.11426 2.02483 -10.1435 
2787 8.11058 4.05043 -12.171 
2746 10.149 2.02746 -12.1765 
2747 10.1474 -6.31252e-16 -10.1474 
2790 10.1386 4.04688 -10.1386 
3097 12.1794 -7.22624e-16 -12.1794 
3098 12.1765 2.02746 -10.149 
3137 12.1713 4.05088 -12.1713 
3099 14.2116 2.03717 -12.1916 
3100 14.193 1.21424e-16 -10.1527 
3140 14.2005 4.05719 -10.1407 
3370 16.2178 3.83674e-16 -12.1843 
3371 16.2155 2.02132 -10.1544 
3402 16.2178 4.07825 -12.1781 
3372 18.2384 2.03934 -12.2369 
3373 18.2329 -2.80226e-17 -10.1432 
3405 18.1966 4.05807 -10.1399 
3533 20.0782 -7.72753e-16 -12.1362 
3534 20.2607 2.05179 -10.2277 
3555 20.0473 4.14267 -12.1099 
139 -20.1097 6.1368 -10.1642 
140 -18.2241 6.15408 -12.2348 
166 -18.2536 8.17992 -10.2116 
370 -16.2327 6.11713 -10.1578 
371 -14.1986 6.07596 -12.1697 
404 -16.2228 8.11385 -12.2206 
407 -14.1801 8.09724 -10.1478 
699 -12.1618 6.07019 -10.1343 
700 -10.1343 6.07019 -12.1618 
738 -12.1448 8.10092 -12.1448 
741 -10.1275 8.10126 -10.1275 
1088 -8.10607 6.07634 -10.1368 
1089 -6.08319 6.08319 -12.1699 
1130 -8.10767 8.10767 -12.1637 
1133 -6.07634 8.10607 -10.1368 
1510 -4.05231 6.08228 -10.1419 
1511 -2.02227 6.08205 -12.1694 
1554 -4.05043 8.11058 -12.171 
1557 -2.02483 8.11426 -10.1435 
1950 4.76152e-16 6.08385 -10.14 
1951 2.02227 6.08205 -12.1694 
1994 3.13648e-17 8.11477 -12.1694 
1997 2.02483 8.11426 -10.1435 
2384 4.05231 6.08228 -10.1419 
2427 4.05043 8.11058 -12.171 
2385 6.08319 6.08319 -12.1699 
2430 6.07634 8.10607 -10.1368 
2788 8.10607 6.07634 -10.1368 
2828 8.10767 8.10767 -12.1637 
2789 10.1343 6.07019 -12.1618 
2831 10.1275 8.10126 -10.1275 
3138 12.1618 6.07019 -10.1343 
3175 12.1448 8.10092 -12.1448 
3139 14.1986 6.07596 -12.1697 
3178 14.1801 8.09724 -10.1478 
3403 16.2327 6.11713 -10.1578 
3433 16.2228 8.11385 -12.2206 
3404 18.2241 6.15408 -12.2348 
3436 18.2536 8.17992 -10.2116 
3556 20.1097 6.1368 -10.1642 
165 -18.0365 10.1917 -12.1323 
187 -18.0365 12.1323 -10.1917 
405 -16.1518 10.126 -10.126 
406 -14.182 10.1504 -12.1667 
435 -16.1742 12.2195 -12.2195 
438 -14.182 12.1667 -10.1504 
739 -12.1567 10.1326 -10.1326 
740 -10.1326 10.1326 -12.1567 
775 -12.1725 12.1725 -12.1725 
778 -10.1326 12.1567 -10.1326 
1131 -8.10126 10.1275 -10.1275 
1132 -6.07019 10.1343 -12.1618 
1169 -8.10092 12.1448 -12.1448 
1172 -6.07019 12.1618 -10.1343 
1555 -4.04688 10.1386 -10.1386 
1556 -2.02746 10.149 -12.1765 
1596 -4.05088 12.1713 -12.1713 
1599 -2.02746 12.1765 -10.149 
1995 -6.67178e-16 10.1474 -10.1474 
1996 2.02746 10.149 -12.1765 
2036 3.91222e-17 12.1794 -12.1794 
2039 2.02746 12.1765 -10.149 
2428 4.04688 10.1386 -10.1386 
2468 4.05088 12.1713 -12.1713 
2429 6.07019 10.1343 -12.1618 
2471 6.07019 12.1618 -10.1343 
2829 8.10126 10.1275 -10.1275 
2866 8.10092 12.1448 -12.1448 
2830 10.1326 10.1326 -12.1567 
2869 10.1326 12.1567 -10.1326 
3176 12.1567 10.1326 -10.1326 
3209 12.1725 12.1725 -12.1725 
3177 14.182 10.1504 -12.1667 
3212 14.182 12.1667 -10.1504 
3434 16.1518 10.126 -10.126 
3461 16.1742 12.2195 -12.2195 
3435 18.0365 10.1917 -12.1323 
3463 18.0365 12.1323 -10.1917 
436 -16.1815 14.1793 -10.1761 
437 -14.2008 14.2008 -12.1896 
462 -14.1793 16.1815 -10.1761 
776 -12.1667 14.182 -10.1504 
777 -10.1504 14.182 -12.1667 
807 -12.2195 16.1742 -12.2195 
810 -10.126 16.1518 -10.126 
1170 -8.09724 14.1801 -10.1478 
1171 -6.07596 14.1986 -12.1697 
1202 -8.11385 16.2228 -12.2206 
1205 -6.11713 16.2327 -10.1578 
1597 -4.05719 14.2005 -10.1407 
1598 -2.03717 14.2116 -12.1916 
1632 -4.07825 16.2178 -12.1781 
1635 -2.02132 16.2155 -10.1544 
2037 8.8066e-16 14.193 -10.1527 
2038 2.03717 14.2116 -12.1916 
2072 3.42396e-16 16.2178 -12.1843 
2075 2.02132 16.2155 -10.1544 
2469 4.05719 14.2005 -10.1407 
2504 4.07825 16.2178 -12.1781 
2470 6.07596 14.1986 -12.1697 
2507 6.11713 16.2327 -10.1578 
2867 8.09724 14.1801 -10.1478 
2899 8.11385 16.2228 -12.2206 
2868 10.1504 14.182 -12.1667 
2902 10.126 16.1518 -10.126 
3210 12.1667 14.182 -10.1504 
3238 12.2195 16.1742 -12.2195 
3211 14.2008 14.2008 -12.1896 
3240 14.1793 16.1815 -10.1761 
3462 16.1815 14.1793 -10.1761 
808 -12.1323 18.0365 -10.1917 
809 -10.1917 18.0365 -12.1323 
1203 -8.17992 18.2536 -10.2116 
1204 -6.15408 18.2241 -12.2348 
1230 -6.1368 20.1097 -10.1642 
1633 -4.05807 18.1966 -10.1399 
1634 -2.03934 18.2384 -12.2369 
1661 -4.14267 20.0473 -12.1099 
1662 -2.05179 20.2607 -10.2277 
2073 4.26724e-16 18.2329 -10.1432 
2074 2.03934 18.2384 -12.2369 
2101 -9.14662e-16 20.0782 -12.1362 
2102 2.05179 20.2607 -10.2277 
2505 4.05807 18.1966 -10.1399 
2533 4.14267 20.0473 -12.1099 
2506 6.15408 18.2241 -12.2348 
2534 6.1368 20.1097 -10.1642 
2900 8.17992 18.2536 -10.2116 
2901 10.1917 18.0365 -12.1323 
3239 12.1323 18.0365 -10.1917 
1246 -4.07474 -22.1139 -6.09631 
1247 -2.09227 -22.0407 -8.09419 
1683 -8.53195e-17 -22.1943 -6.14383 
1684 2.09227 -22.0407 -8.09419 
2124 4.07474 -22.1139 -6.09631 
478 -12.2348 -18.2241 -6.15408 
479 -10.2116 -18.2536 -8.17992 
480 -10.1642 -20.1097 -6.1368 
849 -8.14816 -20.1135 -8.14816 
850 -8.11943 -18.2122 -6.0982 
851 -6.0982 -18.2122 -8.11943 
852 -6.15297 -20.2905 -6.15297 
1260 -4.13478 -20.2766 -8.19621 
1261 -4.0841 -18.2678 -6.10855 
1262 -2.04994 -18.2737 -8.13907 
1263 -2.02011 -20.2155 -6.07871 
1698 -1.76422e-16 -20.2702 -8.19931 
1699 -2.40171e-16 -18.2328 -6.1117 
1700 2.04994 -18.2737 -8.13907 
1701 2.02011 -20.2155 -6.07871 
2136 4.13478 -20.2766 -8.19621 
2137 4.0841 -18.2678 -6.10855 
2138 6.0982 -18.2122 -8.11943 
2139 6.15297 -20.2905 -6.15297 
2557 8.14816 -20.1135 -8.14816 
2558 8.11943 -18.2122 -6.0982 
2559 10.2116 -18.2536 -8.17992 
2560 10.1642 -20.1097 -6.1368 
2939 12.2348 -18.2241 -6.15408 
205 -16.0367 -16.0367 -8.20345 
206 -16.257 -14.2504 -6.11382 
207 -14.1537 -14.1537 -8.11045 
208 -14.2504 -16.257 -6.11382 
503 -12.2206 -16.2228 -8.11385 
504 -12.1697 -14.1986 -6.07596 
505 -10.1478 -14.1801 -8.09724 
506 -10.1578 -16.2327 -6.11713 
878 -8.12816 -16.2319 -8.12816 
879 -8.11584 -14.1981 -6.08785 
880 -6.08785 -14.1981 -8.11584 
881 -6.07998 -16.2025 -6.07998 
1292 -4.05227 -16.2024 -8.10907 
1293 -4.05051 -14.1892 -6.08015 
1294 -2.02004 -14.1952 -8.11383 
1295 -2.0376 -16.2368 -6.09267 
1730 -1.33453e-16 -16.2252 -8.11695 
1731 -2.82805e-16 -14.2066 -6.0826 
1732 2.02004 -14.1952 -8.11383 
1733 2.0376 -16.2368 -6.09267 
2168 4.05227 -16.2024 -8.10907 
2169 4.05051 -14.1892 -6.08015 
2170 6.08785 -14.1981 -8.11584 
2171 6.07998 -16.2025 -6.07998 
2585 8.12816 -16.2319 -8.12816 
2586 8.11584 -14.1981 -6.08785 
2587 10.1478 -14.1801 -8.09724 
2588 10.1578 -16.2327 -6.11713 
2955 12.2206 -16.2228 -8.11385 
2956 12.1697 -14.1986 -6.07596 
2957 14.1537 -14.1537 -8.11045 
2958 14.2504 -16.257 -6.11382 
3264 16.0367 -16.0367 -8.20345 
3265 16.257 -14.2504 -6.11382 
39 -20.1097 -10.1642 -6.1368 
40 -18.2536 -10.2116 -8.17992 
41 -18.2241 -12.2348 -6.15408 
233 -16.2228 -12.2206 -8.11385 
234 -16.2327 -10.1578 -6.11713 
235 -14.1801 -10.1478 -8.09724 
236 -14.1986 -12.1697 -6.07596 
538 -12.1448 -12.1448 -8.10092 
539 -12.1618 -10.1343 -6.07019 
540 -10.1275 -10.1275 -8.10126 
541 -10.1343 -12.1618 -6.07019 
915 -8.10767 -12.1637 -8.10767 
916 -8.10607 -10.1368 -6.07634 
917 -6.07634 -10.1368 -8.10607 
918 -6.08319 -12.1699 -6.08319 
1331 -4.05043 -12.171 -8.11058 
1332 -4.05231 -10.1419 -6.08228 
1333 -2.02483 -10.1435 -8.11426 
1334 -2.02227 -12.1694 -6.08205 
1769 -6.28075e-17 -12.1694 -8.11477 
1770 -2.05238e-16 -10.14 -6.08385 
1771 2.02483 -10.1435 -8.11426 
1772 2.02227 -12.1694 -6.08205 
2207 4.05043 -12.171 -8.11058 
2208 4.05231 -10.1419 -6.08228 